# vtk DataFile Version 2.0
myrope, Created by Gmsh
ASCII
DATASET UNSTRUCTURED_GRID
POINTS 111 double
0 0 0
0.02 0 0
0.01 0.01 0
0.01 -0.01 0
0 0 1
0.01 0.01 1
0.02 0 1
0.01 -0.01 1
0.002928932204542782 0.007071067828273733 0
0.01707106782920026 0.007071067794530692 0
0.01707106779639193 -0.007071067827339025 0
0.002928932171643099 -0.007071067795374049 0
0.002928932204542782 0.007071067828273733 1
0.01707106782920026 0.007071067794530692 1
0.01707106779639193 -0.007071067827339025 1
0.002928932171643099 -0.007071067795374049 1
0 0 0.04999999999989965
0 0 0.09999999999981467
0 0 0.1499999999997036
0 0 0.1999999999995579
0 0 0.2499999999994121
0 0 0.2999999999992664
0 0 0.3499999999991206
0 0 0.3999999999989749
0 0 0.4499999999988292
0 0 0.4999999999986943
0 0 0.5499999999988151
0 0 0.5999999999989468
0 0 0.6499999999990784
0 0 0.69999999999921
0 0 0.7499999999993417
0 0 0.7999999999994734
0 0 0.8499999999996051
0 0 0.8999999999997368
0 0 0.9499999999998684
0.01 0.01 0.04999999999989965
0.01 0.01 0.09999999999981467
0.01 0.01 0.1499999999997036
0.01 0.01 0.1999999999995579
0.01 0.01 0.2499999999994121
0.01 0.01 0.2999999999992664
0.01 0.01 0.3499999999991206
0.01 0.01 0.3999999999989749
0.01 0.01 0.4499999999988292
0.01 0.01 0.4999999999986943
0.01 0.01 0.5499999999988151
0.01 0.01 0.5999999999989468
0.01 0.01 0.6499999999990784
0.01 0.01 0.69999999999921
0.01 0.01 0.7499999999993417
0.01 0.01 0.7999999999994734
0.01 0.01 0.8499999999996051
0.01 0.01 0.8999999999997368
0.01 0.01 0.9499999999998684
0.02 0 0.04999999999989965
0.02 0 0.09999999999981467
0.02 0 0.1499999999997036
0.02 0 0.1999999999995579
0.02 0 0.2499999999994121
0.02 0 0.2999999999992664
0.02 0 0.3499999999991206
0.02 0 0.3999999999989749
0.02 0 0.4499999999988292
0.02 0 0.4999999999986943
0.02 0 0.5499999999988151
0.02 0 0.5999999999989468
0.02 0 0.6499999999990784
0.02 0 0.69999999999921
0.02 0 0.7499999999993417
0.02 0 0.7999999999994734
0.02 0 0.8499999999996051
0.02 0 0.8999999999997368
0.02 0 0.9499999999998684
0.01 -0.01 0.04999999999989965
0.01 -0.01 0.09999999999981467
0.01 -0.01 0.1499999999997036
0.01 -0.01 0.1999999999995579
0.01 -0.01 0.2499999999994121
0.01 -0.01 0.2999999999992664
0.01 -0.01 0.3499999999991206
0.01 -0.01 0.3999999999989749
0.01 -0.01 0.4499999999988292
0.01 -0.01 0.4999999999986943
0.01 -0.01 0.5499999999988151
0.01 -0.01 0.5999999999989468
0.01 -0.01 0.6499999999990784
0.01 -0.01 0.69999999999921
0.01 -0.01 0.7499999999993417
0.01 -0.01 0.7999999999994734
0.01 -0.01 0.8499999999996051
0.01 -0.01 0.8999999999997368
0.01 -0.01 0.9499999999998684
0.01111326446984741 0.002687658172098512 0
0.008495254519777258 -0.003632776934291422 0
0.005489201276915464 0.001820395197790878 0
0.01447683015033066 -0.001902402587072084 0
0.01111326446984741 0.002687658172098512 1
0.008495254519777258 -0.003632776934291422 1
0.005489201276915462 0.001820395197790879 1
0.01447683015033066 -0.001902402587072084 1
0.01 8.271806125508485e-20 0.8749999999996708
0.009999999999999998 1.654361225101701e-19 0.6749999999991443
0.01 -8.271806125508487e-20 0.5749999999988811
0.01 -4.135903062754243e-19 0.7249999999992759
0.01 8.271806125508505e-20 0.7749999999994076
0.01 -4.135903062754243e-20 0.8249999999995392
0.01 -2.067951531377126e-19 0.9249999999998025
0.01 3.308722450203402e-19 0.6249999999990126
0.01 4.135903062772167e-20 0.07499999999985717
0.01000000000002405 1.235503699914398e-15 0.9763524273443679
0.01000000000002405 1.235414574022845e-15 0.02364757265552269

CELLS 218 1090
4 97 98 96 109
4 94 93 92 110
4 97 96 99 109
4 93 95 92 110
4 14 6 72 109
4 54 1 10 110
4 91 7 14 109
4 3 73 10 110
4 53 72 13 109
4 9 54 35 110
4 15 91 34 109
4 11 16 73 110
4 36 16 35 108
4 46 65 66 107
4 45 46 26 102
4 72 6 13 109
4 54 9 1 110
4 7 91 15 109
4 11 73 3 110
4 100 71 70 51
4 100 71 51 52
4 71 100 70 90
4 100 70 90 89
4 101 47 67 66
4 101 47 48 67
4 47 101 48 28
4 101 48 28 29
4 34 53 12 109
4 8 35 16 110
4 5 53 13 109
4 2 9 35 110
4 34 4 15 109
4 11 0 16 110
4 12 53 5 109
4 2 35 8 110
4 4 34 12 109
4 16 0 8 110
4 98 5 96 109
4 94 92 2 110
4 15 98 97 109
4 93 94 11 110
4 7 97 99 109
4 93 3 95 110
4 99 96 13 109
4 92 95 9 110
4 64 25 44 82
4 63 64 44 82
4 26 44 64 25
4 82 26 64 25
4 63 81 43 62
4 23 62 61 42
4 62 80 23 61
4 39 78 59 40
4 39 21 78 40
4 77 59 39 78
4 20 21 78 39
4 77 78 39 20
4 79 61 60 22
4 37 76 57 38
4 38 58 76 57
4 60 41 22 61
4 40 78 60 21
4 60 21 79 22
4 76 37 19 38
4 77 38 39 58
4 19 38 77 76
4 59 77 39 58
4 22 42 61 41
4 38 20 77 39
4 79 61 22 80
4 22 42 23 61
4 23 80 22 61
4 77 38 58 76
4 20 38 77 19
4 21 60 40 22
4 40 60 41 22
4 78 40 60 59
4 21 60 79 78
4 75 36 37 56
4 18 75 36 37
4 80 62 23 81
4 23 43 62 42
4 43 81 23 62
4 81 43 23 24
4 37 76 19 75
4 56 76 57 37
4 55 36 75 56
4 18 74 36 75
4 37 19 18 75
4 56 76 37 75
4 74 18 36 17
4 74 36 75 55
4 44 26 64 45
4 26 82 64 83
4 25 24 43 82
4 81 63 43 82
4 24 81 43 82
4 43 44 25 82
4 44 43 63 82
4 0 94 8 110
4 98 4 12 109
4 28 85 66 101
4 101 47 66 28
4 2 92 9 110
4 5 13 96 109
4 93 11 3 110
4 7 15 97 109
4 2 8 94 110
4 12 5 98 109
4 11 94 0 110
4 98 15 4 109
4 1 95 10 110
4 14 99 6 109
4 9 95 1 110
4 99 13 6 109
4 95 3 10 110
4 99 14 7 109
4 71 52 90 106
4 31 88 69 105
4 68 87 30 103
4 70 32 100 51
4 32 70 100 89
4 64 26 83 102
4 26 64 45 102
4 27 84 46 107
4 46 84 65 107
4 35 16 54 108
4 54 16 73 108
4 69 31 50 104
4 30 68 49 104
4 74 36 55 108
4 84 46 65 102
4 85 28 66 107
4 67 29 86 103
4 91 53 72 106
4 32 70 89 105
4 52 90 33 100
4 100 71 52 90
4 16 54 73 110
4 35 54 16 110
4 91 72 53 109
4 53 34 91 109
4 67 29 101 86
4 29 67 101 48
4 65 45 64 102
4 83 84 64 102
4 50 49 69 104
4 52 72 53 106
4 49 50 30 104
4 68 67 87 103
4 72 71 91 106
4 50 31 30 104
4 89 69 88 105
4 66 86 101 85
4 86 30 87 103
4 69 89 70 105
4 86 87 67 103
4 84 85 65 107
4 65 85 66 107
4 85 84 28 107
4 30 86 29 103
4 54 55 35 108
4 54 74 55 108
4 35 55 36 108
4 54 73 74 108
4 66 86 67 101
4 31 32 88 105
4 65 46 45 102
4 65 64 84 102
4 28 84 27 107
4 68 69 49 104
4 91 71 90 106
4 88 32 89 105
4 71 72 52 106
4 33 89 32 100
4 51 52 32 100
4 33 89 100 90
4 52 33 32 100
4 85 29 86 101
4 29 85 28 101
4 14 72 91 109
4 10 73 54 110
4 103 67 48 68
4 103 48 67 29
4 49 103 48 68
4 49 48 103 29
4 30 103 49 68
4 30 49 103 29
4 26 102 27 83
4 26 27 102 46
4 84 27 102 83
4 84 102 27 46
4 104 69 88 68
4 104 88 69 31
4 87 104 88 68
4 87 88 104 31
4 30 104 87 68
4 30 87 104 31
4 105 32 51 31
4 105 51 32 70
4 50 105 51 31
4 50 51 105 70
4 69 105 50 31
4 69 50 105 70
4 52 106 33 90
4 33 106 52 53
4 106 34 33 90
4 33 34 106 53
4 106 91 34 90
4 34 91 106 53
4 28 107 47 66
4 28 47 107 27
4 46 47 107 66
4 46 107 47 27
4 74 108 17 36
4 74 17 108 73
4 16 17 108 36
4 16 108 17 73

CELL_TYPES 218
10
10
10
10
10
10
10
10
10
10
10
10
10
10
10
10
10
10
10
10
10
10
10
10
10
10
10
10
10
10
10
10
10
10
10
10
10
10
10
10
10
10
10
10
10
10
10
10
10
10
10
10
10
10
10
10
10
10
10
10
10
10
10
10
10
10
10
10
10
10
10
10
10
10
10
10
10
10
10
10
10
10
10
10
10
10
10
10
10
10
10
10
10
10
10
10
10
10
10
10
10
10
10
10
10
10
10
10
10
10
10
10
10
10
10
10
10
10
10
10
10
10
10
10
10
10
10
10
10
10
10
10
10
10
10
10
10
10
10
10
10
10
10
10
10
10
10
10
10
10
10
10
10
10
10
10
10
10
10
10
10
10
10
10
10
10
10
10
10
10
10
10
10
10
10
10
10
10
10
10
10
10
10
10
10
10
10
10
10
10
10
10
10
10
10
10
10
10
10
10
10
10
10
10
10
10
10
10
10
10
10
10
10
10
10
10
10
10

CELL_DATA 218
SCALARS CellEntityIds int 1
LOOKUP_TABLE default
1
1
1
1
1
1
1
1
1
1
1
1
1
1
1
1
1
1
1
1
1
1
1
1
1
1
1
1
1
1
1
1
1
1
1
1
1
1
1
1
1
1
1
1
1
1
1
1
1
1
1
1
1
1
1
1
1
1
1
1
1
1
1
1
1
1
1
1
1
1
1
1
1
1
1
1
1
1
1
1
1
1
1
1
1
1
1
1
1
1
1
1
1
1
1
1
1
1
1
1
1
1
1
1
1
1
1
1
1
1
1
1
1
1
1
1
1
1
1
1
1
1
1
1
1
1
1
1
1
1
1
1
1
1
1
1
1
1
1
1
1
1
1
1
1
1
1
1
1
1
1
1
1
1
1
1
1
1
1
1
1
1
1
1
1
1
1
1
1
1
1
1
1
1
1
1
1
1
1
1
1
1
1
1
1
1
1
1
1
1
1
1
1
1
1
1
1
1
1
1
1
1
1
1
1
1
1
1
1
1
1
1
1
1
1
1
1
1
